# vtk DataFile Version 5.10
Hexahedral mesh with data
ASCII
DATASET UNSTRUCTURED_GRID
POINTS 118 float
   1.5648803362918486e+03    6.5060723617720771e+02    0.0000000000000000e+00
   1.4751900138098815e+03    6.5822703032714287e+02    0.0000000000000000e+00
   1.5043729892602414e+03    5.3833526259219616e+02    0.0000000000000000e+00
   1.5523817504135150e+03    3.9428680755758955e+02    0.0000000000000000e+00
   1.4959172609244354e+03    4.0751424873601218e+02    0.0000000000000000e+00
   1.6055625645646141e+03    4.6298461432361523e+02    0.0000000000000000e+00
   1.5569197320237515e+03    5.4802439752659609e+02    0.0000000000000000e+00
   1.4066062721273856e+03    2.9302310856451709e+02    0.0000000000000000e+00
   1.5449714179077498e+03    2.3032054807153000e+02    0.0000000000000000e+00
   1.6564527866139488e+03    1.8579882205801798e+02    0.0000000000000000e+00
   1.4356546548129411e+03    4.5127510506983094e+02    0.0000000000000000e+00
   1.4177136830957945e+03    5.4639934065373438e+02    0.0000000000000000e+00
   1.3174243908484407e+03    4.5882516806329158e+02    0.0000000000000000e+00
   1.2954798262826610e+03    5.5090623923048622e+02    0.0000000000000000e+00
   1.2186404803820872e+03    4.5088233396328059e+02    0.0000000000000000e+00
   1.3399655109038979e+03    4.0560603847191783e+02    0.0000000000000000e+00
   1.2633106423607303e+03    2.9203149545404557e+02    0.0000000000000000e+00
   1.1816974758225770e+03    3.5876608631574680e+02    0.0000000000000000e+00
   1.1095777531515021e+03    4.3462171752573266e+02    0.0000000000000000e+00
   1.0522979312192701e+03    3.1868074394601564e+02    0.0000000000000000e+00
   1.0063683351418152e+03    2.0291707593762339e+02    0.0000000000000000e+00
   9.9087798878342710e+02    1.0108060541482276e+02    0.0000000000000000e+00
   1.0250391372728802e+03    2.5881707785001790e+01    0.0000000000000000e+00
   8.5714348451550131e+02    3.3433607620622460e+01    0.0000000000000000e+00
   1.1172958191531577e+03    3.7949124628220098e+01    0.0000000000000000e+00
   1.1322978185775394e+03    1.6866146358551723e+02    0.0000000000000000e+00
   1.2196470384013926e+03   -3.9723174387512152e+01    0.0000000000000000e+00
   1.3232169906926742e+03   -6.9256320550402606e+01    0.0000000000000000e+00
   1.3568870532640449e+03    1.9553279116496441e+01    0.0000000000000000e+00
   1.1777803228541477e+03    2.9157787216131635e+02    0.0000000000000000e+00
   1.2911477039312201e+03    1.2092179993039041e+02    0.0000000000000000e+00
   1.1846949351490014e+03    3.9688613586700164e+01    0.0000000000000000e+00
   1.1190430772684658e+03    5.1978846574201771e+02    0.0000000000000000e+00
   1.0340532823994927e+03    5.6409251852791431e+02    0.0000000000000000e+00
   9.9326214858778621e+02    6.3272999456795242e+02    0.0000000000000000e+00
   1.0524920712532485e+03    6.8323964484202622e+02    0.0000000000000000e+00
   9.8040620142917112e+02    5.0753885731820452e+02    0.0000000000000000e+00
   9.5451459563990841e+02    4.0241461328946980e+02    0.0000000000000000e+00
   9.0395042749441484e+02    5.1214484249835357e+02    0.0000000000000000e+00
   8.4441946993984402e+02    4.5267811900157216e+02    0.0000000000000000e+00
   7.8384637358434236e+02    3.8710434690589449e+02    0.0000000000000000e+00
   6.9325333028654313e+02    4.1600977526266479e+02    0.0000000000000000e+00
   9.1013739159192710e+02    6.2574441519157267e+02    0.0000000000000000e+00
   7.7180017335089076e+02    5.7064496365065554e+02    0.0000000000000000e+00
   6.1522411327465261e+02    4.6828709512447625e+02    0.0000000000000000e+00
   5.3262411616100997e+02    3.7466439660415375e+02    0.0000000000000000e+00
   4.8560751523270210e+02    3.2252973830489537e+02    0.0000000000000000e+00
   4.3926787609904414e+02    4.0068289260908938e+02    0.0000000000000000e+00
   5.1703142468415365e+02    4.4636460611234475e+02    0.0000000000000000e+00
   4.4969314320156337e+02    4.9540504776139363e+02    0.0000000000000000e+00
   3.4931801729657110e+02    5.0142525322511057e+02    0.0000000000000000e+00
   2.4108896917420819e+02    5.6705109901069852e+02    0.0000000000000000e+00
   2.8793929084639018e+02    6.6233778123954505e+02    0.0000000000000000e+00
   4.3661438965556954e+02    6.2787653217123659e+02    0.0000000000000000e+00
   3.8999527338606555e+02    7.4868387454925039e+02    0.0000000000000000e+00
   3.8637310375580159e+02    6.7577821296163245e+02    0.0000000000000000e+00
   3.9913888260962989e+02    5.7509982441391128e+02    0.0000000000000000e+00
   3.1154269941949821e+02    6.0460869004186520e+02    0.0000000000000000e+00
   4.7458022041830918e+02    7.3755886928223379e+02    0.0000000000000000e+00
   5.1192073081082009e+02    7.9979312189517304e+02    0.0000000000000000e+00
   5.6837476480277849e+02    7.5246933241616273e+02    0.0000000000000000e+00
   5.7449985893077383e+02    6.7805132052220245e+02    0.0000000000000000e+00
   5.9997414898612794e+02    8.1131578248660514e+02    0.0000000000000000e+00
   6.6811858579018497e+02    6.9591076698362349e+02    0.0000000000000000e+00
   7.1251449488773994e+02    4.8566249460918220e+02    0.0000000000000000e+00
   5.9585749165554239e+02    5.5349244944352927e+02    0.0000000000000000e+00
   6.3889605920481824e+02    6.2909358376742398e+02    0.0000000000000000e+00
   5.8682164310764063e+02    2.9241389878671976e+02    0.0000000000000000e+00
   5.4002452511699414e+02    2.2027323794984798e+02    0.0000000000000000e+00
   6.9257510353936277e+02    8.6634262978019692e+01    0.0000000000000000e+00
   7.4717984970648911e+02   -5.4079480738285646e+01    0.0000000000000000e+00
   8.4817883225699643e+02   -6.6162305725374850e+01    0.0000000000000000e+00
   7.5430016937643325e+02   -1.7369274380248009e+02    0.0000000000000000e+00
   6.4514622137560298e+02    3.3930385094794055e+01    0.0000000000000000e+00
   5.6566194934795396e+02    1.0753909074224138e+02    0.0000000000000000e+00
   4.7178366928048484e+02    5.7310183547002289e+01    0.0000000000000000e+00
   4.0899910765799865e+02    1.1005087076249909e+02    0.0000000000000000e+00
   4.3227003272766910e+02   -4.3217805375070375e+00    0.0000000000000000e+00
   3.6235028836203406e+02   -5.6040042528523465e+01    0.0000000000000000e+00
   3.0953253083327974e+02    1.9890005084992136e+01    0.0000000000000000e+00
   4.1463275657021160e+02    1.8214755664025458e+02    0.0000000000000000e+00
   2.2238335373048358e+02    1.5165358598311775e+02    0.0000000000000000e+00
   6.3473990114327570e+01    1.9165856484719609e+02    0.0000000000000000e+00
  -2.5443522477511284e+01    2.4227630830851044e+02    0.0000000000000000e+00
  -7.5041407108615203e+01    1.6832296624268778e+02    0.0000000000000000e+00
  -1.8413078087394595e+02    2.3950282093732687e+02    0.0000000000000000e+00
  -2.8102914775585350e+02    2.8504420195272752e+02    0.0000000000000000e+00
  -1.4814968001925965e+02    1.1595033897069243e+02    0.0000000000000000e+00
  -8.9727943506751771e+01    4.1704387257052353e+01    0.0000000000000000e+00
  -1.8775392694516412e+02   -1.0346470208686542e+01    0.0000000000000000e+00
  -1.2913981791680905e+02   -8.5203474415868968e+01    0.0000000000000000e+00
  -8.8120700482731618e+00   -7.9861456720009258e+01    0.0000000000000000e+00
   2.8434482038374266e+01   -2.2855460006101840e+01    0.0000000000000000e+00
   1.0206828308665989e+02   -6.1040123973260819e+01    0.0000000000000000e+00
   1.2585175892659127e+02    2.0198888918522254e+01    0.0000000000000000e+00
   1.9502366601128730e+02    3.7842496554084100e+01    0.0000000000000000e+00
   2.6035873772503714e+02    7.4130985825709445e+01    0.0000000000000000e+00
   2.4916451117236906e+02   -1.2421448805784699e+02    0.0000000000000000e+00
   2.1936159336936313e+02   -9.2559620619314501e+01    0.0000000000000000e+00
   1.1932699580687047e+02   -1.7751477280723361e+02    0.0000000000000000e+00
   2.3236343136209133e+01   -2.0128511193383690e+02    0.0000000000000000e+00
  -5.5686755567880944e+01   -1.5466970485699116e+02    0.0000000000000000e+00
   5.6119210542012688e+01   -3.3233605485152674e+02    0.0000000000000000e+00
   1.1012243063946278e+02   -2.7891510067326880e+02    0.0000000000000000e+00
   1.4275588216515996e+02   -3.7644703602546684e+02    0.0000000000000000e+00
   1.9062070454321019e+02   -2.8262341065601601e+02    0.0000000000000000e+00
   2.3235398356763676e+02   -3.7303657882953763e+02    0.0000000000000000e+00
   1.4485037699567940e+02   -4.8544593090464605e+02    0.0000000000000000e+00
   6.0488302712421898e+01   -5.2263033124652941e+02    0.0000000000000000e+00
  -1.2115045770128470e+01   -4.4937229056647766e+02    0.0000000000000000e+00
  -6.3162510379162136e+01   -5.5264409698887459e+02    0.0000000000000000e+00
  -1.1456195660162096e+02   -4.5362692884224452e+02    0.0000000000000000e+00
   1.2345542018016904e+03    1.6916640566100051e+02    0.0000000000000000e+00
   1.1458988490889822e+03   -9.2467692627897563e+01    0.0000000000000000e+00
   1.2147119587123386e+03   -1.4895626671990763e+02    0.0000000000000000e+00
   6.6884865622929703e+02    2.4473897171408154e+02    0.0000000000000000e+00
   1.3871787749902330e+03    6.5305412137715950e+02    0.0000000000000000e+00
   5.5351433579949173e+02    1.4932634526987442e+01    0.0000000000000000e+00

CELLS 186 558
2 0 1 
2 0 2 
2 3 4 
2 2 4 
2 4 5 
2 5 6 
2 7 8 
2 7 4 
2 8 9 
2 3 10 
2 4 10 
2 10 11 
2 1 11 
2 2 11 
2 6 11 
2 10 12 
2 11 13 
2 12 14 
2 13 14 
2 11 15 
2 14 16 
2 15 16 
2 16 17 
2 17 18 
2 18 19 
2 14 18 
2 19 20 
2 20 21 
2 21 22 
2 22 23 
2 22 24 
2 25 24 
2 24 26 
2 26 27 
2 27 28 
2 29 16 
2 7 29 
2 25 29 
2 16 30 
2 28 30 
2 22 31 
2 30 31 
2 26 31 
2 14 32 
2 18 33 
2 34 35 
2 34 36 
2 32 36 
2 33 35 
2 33 36 
2 37 36 
2 36 38 
2 36 39 
2 29 37 
2 38 39 
2 39 40 
2 39 41 
2 40 41 
2 42 43 
2 33 42 
2 43 44 
2 44 45 
2 45 46 
2 45 47 
2 46 48 
2 41 48 
2 41 48 
2 44 48 
2 47 48 
2 48 49 
2 48 50 
2 50 51 
2 51 52 
2 52 53 
2 48 53 
2 48 53 
2 53 54 
2 53 55 
2 54 55 
2 55 56 
2 49 56 
2 55 57 
2 50 57 
2 53 58 
2 55 58 
2 55 58 
2 54 58 
2 58 59 
2 58 60 
2 59 60 
2 59 61 
2 60 61 
2 62 58 
2 62 63 
2 63 60 
2 37 64 
2 63 64 
2 48 65 
2 48 65 
2 61 65 
2 61 66 
2 64 65 
2 65 66 
2 64 67 
2 46 68 
2 48 68 
2 67 68 
2 68 69 
2 23 69 
2 69 70 
2 23 71 
2 70 71 
2 70 72 
2 69 73 
2 69 74 
2 68 74 
2 73 74 
2 75 76 
2 68 76 
2 74 76 
2 76 77 
2 77 78 
2 76 79 
2 76 79 
2 78 79 
2 67 80 
2 80 79 
2 76 81 
2 81 82 
2 82 83 
2 82 84 
2 83 84 
2 84 85 
2 85 86 
2 84 87 
2 84 88 
2 87 88 
2 88 89 
2 88 89 
2 89 90 
2 88 91 
2 88 91 
2 90 91 
2 91 92 
2 91 93 
2 92 93 
2 93 94 
2 79 95 
2 81 95 
2 93 95 
2 79 96 
2 79 97 
2 79 98 
2 91 99 
2 93 99 
2 94 95 
2 95 96 
2 97 99 
2 98 99 
2 99 100 
2 91 101 
2 100 101 
2 99 102 
2 99 103 
2 102 103 
2 102 104 
2 99 105 
2 103 104 
2 104 105 
2 104 106 
2 104 107 
2 105 106 
2 107 108 
2 102 109 
2 108 109 
2 109 110 
2 109 111 
2 16 112 
2 31 112 
2 31 113 
2 26 114 
2 113 114 
2 67 115 
2 11 116 
2 74 117 
2 75 117 

CELL_TYPES 186
3
3
3
3
3
3
3
3
3
3
3
3
3
3
3
3
3
3
3
3
3
3
3
3
3
3
3
3
3
3
3
3
3
3
3
3
3
3
3
3
3
3
3
3
3
3
3
3
3
3
3
3
3
3
3
3
3
3
3
3
3
3
3
3
3
3
3
3
3
3
3
3
3
3
3
3
3
3
3
3
3
3
3
3
3
3
3
3
3
3
3
3
3
3
3
3
3
3
3
3
3
3
3
3
3
3
3
3
3
3
3
3
3
3
3
3
3
3
3
3
3
3
3
3
3
3
3
3
3
3
3
3
3
3
3
3
3
3
3
3
3
3
3
3
3
3
3
3
3
3
3
3
3
3
3
3
3
3
3
3
3
3
3
3
3
3
3
3
3
3
3
3
3
3
3
3
3
3
3
3
3
3
3
3
3
3

CELL_DATA 186
SCALARS rateA float 1
LOOKUP_TABLE default
   2.5000000000000000e+02
   2.5000000000000000e+02
   2.5000000000000000e+02
   2.5000000000000000e+02
   2.5000000000000000e+02
   2.5000000000000000e+02
   2.5000000000000000e+02
   2.5000000000000000e+02
   2.5000000000000000e+02
   2.5000000000000000e+02
   2.5000000000000000e+02
   2.5000000000000000e+02
   2.5000000000000000e+02
   2.5000000000000000e+02
   2.5000000000000000e+02
   2.5000000000000000e+02
   2.5000000000000000e+02
   2.5000000000000000e+02
   2.5000000000000000e+02
   2.5000000000000000e+02
   2.5000000000000000e+02
   2.5000000000000000e+02
   2.5000000000000000e+02
   2.5000000000000000e+02
   2.5000000000000000e+02
   2.5000000000000000e+02
   2.5000000000000000e+02
   2.5000000000000000e+02
   2.5000000000000000e+02
   2.5000000000000000e+02
   2.5000000000000000e+02
   2.5000000000000000e+02
   2.5000000000000000e+02
   2.5000000000000000e+02
   2.5000000000000000e+02
   2.5000000000000000e+02
   2.5000000000000000e+02
   2.5000000000000000e+02
   2.5000000000000000e+02
   2.5000000000000000e+02
   2.5000000000000000e+02
   2.5000000000000000e+02
   2.5000000000000000e+02
   2.5000000000000000e+02
   2.5000000000000000e+02
   2.5000000000000000e+02
   2.5000000000000000e+02
   2.5000000000000000e+02
   2.5000000000000000e+02
   2.5000000000000000e+02
   2.5000000000000000e+02
   2.5000000000000000e+02
   2.5000000000000000e+02
   2.5000000000000000e+02
   2.5000000000000000e+02
   2.5000000000000000e+02
   2.5000000000000000e+02
   2.5000000000000000e+02
   2.5000000000000000e+02
   2.5000000000000000e+02
   2.5000000000000000e+02
   2.5000000000000000e+02
   2.5000000000000000e+02
   2.5000000000000000e+02
   2.5000000000000000e+02
   2.5000000000000000e+02
   2.5000000000000000e+02
   2.5000000000000000e+02
   2.5000000000000000e+02
   2.5000000000000000e+02
   2.5000000000000000e+02
   2.5000000000000000e+02
   2.5000000000000000e+02
   2.5000000000000000e+02
   2.5000000000000000e+02
   2.5000000000000000e+02
   2.5000000000000000e+02
   2.5000000000000000e+02
   2.5000000000000000e+02
   2.5000000000000000e+02
   2.5000000000000000e+02
   2.5000000000000000e+02
   2.5000000000000000e+02
   2.5000000000000000e+02
   2.5000000000000000e+02
   2.5000000000000000e+02
   2.5000000000000000e+02
   2.5000000000000000e+02
   2.5000000000000000e+02
   2.5000000000000000e+02
   2.5000000000000000e+02
   2.5000000000000000e+02
   2.5000000000000000e+02
   2.5000000000000000e+02
   2.5000000000000000e+02
   2.5000000000000000e+02
   2.5000000000000000e+02
   2.5000000000000000e+02
   2.5000000000000000e+02
   2.5000000000000000e+02
   2.5000000000000000e+02
   2.5000000000000000e+02
   2.5000000000000000e+02
   2.5000000000000000e+02
   2.5000000000000000e+02
   2.5000000000000000e+02
   2.5000000000000000e+02
   2.5000000000000000e+02
   2.5000000000000000e+02
   2.5000000000000000e+02
   2.5000000000000000e+02
   2.5000000000000000e+02
   2.5000000000000000e+02
   2.5000000000000000e+02
   2.5000000000000000e+02
   2.5000000000000000e+02
   2.5000000000000000e+02
   2.5000000000000000e+02
   2.5000000000000000e+02
   2.5000000000000000e+02
   2.5000000000000000e+02
   2.5000000000000000e+02
   2.5000000000000000e+02
   2.5000000000000000e+02
   2.5000000000000000e+02
   2.5000000000000000e+02
   2.5000000000000000e+02
   2.5000000000000000e+02
   2.5000000000000000e+02
   2.5000000000000000e+02
   2.5000000000000000e+02
   2.5000000000000000e+02
   2.5000000000000000e+02
   2.5000000000000000e+02
   2.5000000000000000e+02
   2.5000000000000000e+02
   2.5000000000000000e+02
   2.5000000000000000e+02
   2.5000000000000000e+02
   2.5000000000000000e+02
   2.5000000000000000e+02
   2.5000000000000000e+02
   2.5000000000000000e+02
   2.5000000000000000e+02
   2.5000000000000000e+02
   2.5000000000000000e+02
   2.5000000000000000e+02
   2.5000000000000000e+02
   2.5000000000000000e+02
   2.5000000000000000e+02
   2.5000000000000000e+02
   2.5000000000000000e+02
   2.5000000000000000e+02
   2.5000000000000000e+02
   2.5000000000000000e+02
   2.5000000000000000e+02
   2.5000000000000000e+02
   2.5000000000000000e+02
   2.5000000000000000e+02
   2.5000000000000000e+02
   2.5000000000000000e+02
   2.5000000000000000e+02
   2.5000000000000000e+02
   2.5000000000000000e+02
   2.5000000000000000e+02
   2.5000000000000000e+02
   2.5000000000000000e+02
   2.5000000000000000e+02
   2.5000000000000000e+02
   2.5000000000000000e+02
   2.5000000000000000e+02
   2.5000000000000000e+02
   2.5000000000000000e+02
   2.5000000000000000e+02
   2.5000000000000000e+02
   2.5000000000000000e+02
   2.5000000000000000e+02
   2.5000000000000000e+02
   2.5000000000000000e+02
   2.5000000000000000e+02
   2.5000000000000000e+02
   2.5000000000000000e+02
   2.5000000000000000e+02
   2.5000000000000000e+02
   2.5000000000000000e+02
   2.5000000000000000e+02
SCALARS R float 1
LOOKUP_TABLE default
   3.0300000000000001e-02
   1.2900000000000000e-02
   1.7600000000000001e-03
   2.4100000000000000e-02
   1.1900000000000001e-02
   4.5900000000000003e-03
   2.4399999999999999e-03
   0.0000000000000000e+00
   2.5799999999999998e-03
   2.0899999999999998e-02
   2.0299999999999999e-02
   5.9500000000000004e-03
   1.8700000000000001e-02
   4.8399999999999999e-02
   8.6199999999999992e-03
   2.2249999999999999e-02
   2.1499999999999998e-02
   7.4399999999999994e-02
   5.9499999999999997e-02
   2.1200000000000000e-02
   1.3200000000000000e-02
   4.5400000000000003e-02
   1.2300000000000000e-02
   1.1190000000000000e-02
   2.5200000000000000e-02
   1.2000000000000000e-02
   1.8300000000000000e-02
   2.0899999999999998e-02
   3.4200000000000001e-02
   1.3500000000000000e-02
   1.5599999999999999e-02
   0.0000000000000000e+00
   3.1800000000000002e-02
   1.9130000000000001e-02
   2.3699999999999999e-02
   0.0000000000000000e+00
   4.3099999999999996e-03
   7.9900000000000006e-03
   4.7399999999999998e-02
   1.0800000000000001e-02
   3.1699999999999999e-02
   2.9800000000000000e-02
   2.2900000000000000e-02
   3.7999999999999999e-02
   7.5200000000000003e-02
   2.2399999999999998e-03
   1.0999999999999999e-02
   4.1500000000000002e-02
   8.7100000000000007e-03
   2.5600000000000002e-03
   0.0000000000000000e+00
   3.2099999999999997e-02
   5.9299999999999999e-02
   4.6400000000000000e-03
   1.8400000000000000e-02
   1.4500000000000001e-02
   5.5500000000000001e-02
   4.1000000000000002e-02
   6.0800000000000000e-02
   4.1300000000000003e-02
   2.2400000000000000e-02
   4.0000000000000001e-02
   3.7999999999999999e-02
   6.0100000000000001e-02
   1.9099999999999999e-02
   7.1499999999999994e-02
   7.1499999999999994e-02
   6.8400000000000002e-02
   1.7899999999999999e-02
   2.6700000000000002e-02
   4.8599999999999997e-02
   2.0299999999999999e-02
   4.0500000000000001e-02
   2.6300000000000000e-02
   7.2999999999999995e-02
   8.6900000000000005e-02
   1.6899999999999998e-02
   2.7499999999999998e-03
   4.8799999999999998e-03
   3.4299999999999997e-02
   4.7399999999999998e-02
   3.4299999999999997e-02
   2.5499999999999998e-02
   5.0299999999999997e-02
   8.2500000000000004e-02
   8.0299999999999996e-02
   4.7390000000000002e-02
   3.1699999999999999e-02
   3.2800000000000003e-02
   2.6400000000000000e-03
   1.2300000000000000e-02
   8.2400000000000008e-03
   0.0000000000000000e+00
   1.7200000000000000e-03
   0.0000000000000000e+00
   9.0100000000000006e-03
   2.6900000000000001e-03
   1.7999999999999999e-02
   1.7999999999999999e-02
   4.8200000000000000e-02
   2.5800000000000000e-02
   0.0000000000000000e+00
   2.2400000000000000e-02
   1.3799999999999999e-03
   8.4400000000000003e-02
   9.8500000000000004e-02
   0.0000000000000000e+00
   2.9999999999999999e-02
   2.2100000000000002e-03
   8.8199999999999997e-03
   4.8800000000000003e-02
   4.4600000000000001e-02
   8.6599999999999993e-03
   4.0099999999999997e-02
   4.2799999999999998e-02
   4.0500000000000001e-02
   1.2300000000000000e-02
   4.4400000000000002e-02
   3.0900000000000000e-02
   6.0100000000000001e-02
   3.7599999999999999e-03
   5.4599999999999996e-03
   1.7000000000000001e-02
   2.9399999999999999e-02
   1.5599999999999999e-02
   1.7500000000000000e-03
   0.0000000000000000e+00
   2.9800000000000000e-02
   1.1200000000000000e-02
   6.2500000000000000e-02
   4.2999999999999997e-02
   3.0200000000000001e-02
   3.5000000000000003e-02
   2.8280000000000000e-02
   2.0000000000000000e-02
   2.3900000000000001e-02
   1.3899999999999999e-02
   5.1799999999999999e-02
   2.3800000000000002e-02
   2.5399999999999999e-02
   9.9000000000000008e-03
   3.9300000000000002e-02
   3.8699999999999998e-02
   2.5800000000000000e-02
   4.8099999999999997e-02
   2.2300000000000000e-02
   1.3200000000000000e-02
   3.5600000000000000e-02
   1.6199999999999999e-02
   2.6900000000000000e-02
   1.8300000000000000e-02
   2.3800000000000002e-02
   4.5400000000000003e-02
   6.4799999999999996e-02
   1.7800000000000000e-02
   1.7100000000000001e-02
   1.7299999999999999e-02
   3.9699999999999999e-02
   1.7999999999999999e-02
   2.7699999999999999e-02
   1.2300000000000000e-02
   2.4600000000000000e-02
   1.6000000000000000e-02
   4.5100000000000001e-02
   4.6600000000000003e-02
   5.3499999999999999e-02
   6.0499999999999998e-02
   9.9399999999999992e-03
   1.4000000000000000e-02
   5.2999999999999999e-02
   2.6100000000000002e-02
   5.2999999999999999e-02
   1.0500000000000001e-02
   3.9059999999999997e-02
   2.7799999999999998e-02
   2.1999999999999999e-02
   2.4700000000000000e-02
   9.1299999999999992e-03
   6.1499999999999999e-02
   1.3500000000000000e-02
   1.6400000000000001e-02
   2.3000000000000000e-03
   3.4000000000000002e-04
   3.2899999999999999e-02
   1.4500000000000001e-02
   1.6400000000000001e-02
POINT_DATA 118
SCALARS type float 1
LOOKUP_TABLE default
   2.0000000000000000e+00
   1.0000000000000000e+00
   1.0000000000000000e+00
   2.0000000000000000e+00
   1.0000000000000000e+00
   2.0000000000000000e+00
   1.0000000000000000e+00
   2.0000000000000000e+00
   1.0000000000000000e+00
   2.0000000000000000e+00
   1.0000000000000000e+00
   2.0000000000000000e+00
   1.0000000000000000e+00
   1.0000000000000000e+00
   2.0000000000000000e+00
   1.0000000000000000e+00
   1.0000000000000000e+00
   2.0000000000000000e+00
   2.0000000000000000e+00
   1.0000000000000000e+00
   1.0000000000000000e+00
   1.0000000000000000e+00
   1.0000000000000000e+00
   2.0000000000000000e+00
   2.0000000000000000e+00
   2.0000000000000000e+00
   2.0000000000000000e+00
   1.0000000000000000e+00
   1.0000000000000000e+00
   1.0000000000000000e+00
   2.0000000000000000e+00
   2.0000000000000000e+00
   1.0000000000000000e+00
   2.0000000000000000e+00
   1.0000000000000000e+00
   2.0000000000000000e+00
   1.0000000000000000e+00
   1.0000000000000000e+00
   1.0000000000000000e+00
   2.0000000000000000e+00
   1.0000000000000000e+00
   2.0000000000000000e+00
   1.0000000000000000e+00
   1.0000000000000000e+00
   1.0000000000000000e+00
   2.0000000000000000e+00
   1.0000000000000000e+00
   1.0000000000000000e+00
   2.0000000000000000e+00
   1.0000000000000000e+00
   1.0000000000000000e+00
   1.0000000000000000e+00
   1.0000000000000000e+00
   2.0000000000000000e+00
   2.0000000000000000e+00
   2.0000000000000000e+00
   1.0000000000000000e+00
   1.0000000000000000e+00
   2.0000000000000000e+00
   1.0000000000000000e+00
   2.0000000000000000e+00
   2.0000000000000000e+00
   1.0000000000000000e+00
   1.0000000000000000e+00
   2.0000000000000000e+00
   2.0000000000000000e+00
   1.0000000000000000e+00
   1.0000000000000000e+00
   3.0000000000000000e+00
   2.0000000000000000e+00
   1.0000000000000000e+00
   2.0000000000000000e+00
   2.0000000000000000e+00
   2.0000000000000000e+00
   1.0000000000000000e+00
   2.0000000000000000e+00
   2.0000000000000000e+00
   1.0000000000000000e+00
   1.0000000000000000e+00
   2.0000000000000000e+00
   1.0000000000000000e+00
   1.0000000000000000e+00
   1.0000000000000000e+00
   1.0000000000000000e+00
   2.0000000000000000e+00
   1.0000000000000000e+00
   2.0000000000000000e+00
   1.0000000000000000e+00
   2.0000000000000000e+00
   2.0000000000000000e+00
   2.0000000000000000e+00
   2.0000000000000000e+00
   1.0000000000000000e+00
   1.0000000000000000e+00
   1.0000000000000000e+00
   1.0000000000000000e+00
   1.0000000000000000e+00
   1.0000000000000000e+00
   2.0000000000000000e+00
   2.0000000000000000e+00
   1.0000000000000000e+00
   1.0000000000000000e+00
   2.0000000000000000e+00
   2.0000000000000000e+00
   2.0000000000000000e+00
   1.0000000000000000e+00
   2.0000000000000000e+00
   1.0000000000000000e+00
   1.0000000000000000e+00
   2.0000000000000000e+00
   2.0000000000000000e+00
   2.0000000000000000e+00
   2.0000000000000000e+00
   1.0000000000000000e+00
   1.0000000000000000e+00
   2.0000000000000000e+00
   1.0000000000000000e+00
   1.0000000000000000e+00
SCALARS PD float 1
LOOKUP_TABLE default
   5.1000000000000000e+01
   2.0000000000000000e+01
   3.9000000000000000e+01
   3.9000000000000000e+01
   0.0000000000000000e+00
   5.2000000000000000e+01
   1.9000000000000000e+01
   2.8000000000000000e+01
   0.0000000000000000e+00
   0.0000000000000000e+00
   7.0000000000000000e+01
   4.7000000000000000e+01
   3.4000000000000000e+01
   1.4000000000000000e+01
   9.0000000000000000e+01
   2.5000000000000000e+01
   1.1000000000000000e+01
   6.0000000000000000e+01
   4.5000000000000000e+01
   1.8000000000000000e+01
   1.4000000000000000e+01
   1.0000000000000000e+01
   7.0000000000000000e+00
   1.3000000000000000e+01
   0.0000000000000000e+00
   0.0000000000000000e+00
   7.1000000000000000e+01
   1.7000000000000000e+01
   2.4000000000000000e+01
   0.0000000000000000e+00
   4.3000000000000000e+01
   5.9000000000000000e+01
   2.3000000000000000e+01
   5.9000000000000000e+01
   3.3000000000000000e+01
   3.1000000000000000e+01
   0.0000000000000000e+00
   0.0000000000000000e+00
   2.7000000000000000e+01
   6.6000000000000000e+01
   3.7000000000000000e+01
   9.6000000000000000e+01
   1.8000000000000000e+01
   1.6000000000000000e+01
   5.3000000000000000e+01
   2.8000000000000000e+01
   3.4000000000000000e+01
   2.0000000000000000e+01
   8.7000000000000000e+01
   1.7000000000000000e+01
   1.7000000000000000e+01
   1.8000000000000000e+01
   2.3000000000000000e+01
   1.1300000000000000e+02
   6.3000000000000000e+01
   8.4000000000000000e+01
   1.2000000000000000e+01
   1.2000000000000000e+01
   2.7700000000000000e+02
   7.8000000000000000e+01
   0.0000000000000000e+00
   7.7000000000000000e+01
   0.0000000000000000e+00
   0.0000000000000000e+00
   0.0000000000000000e+00
   3.9000000000000000e+01
   2.8000000000000000e+01
   0.0000000000000000e+00
   0.0000000000000000e+00
   6.6000000000000000e+01
   0.0000000000000000e+00
   1.2000000000000000e+01
   6.0000000000000000e+00
   6.8000000000000000e+01
   4.7000000000000000e+01
   6.8000000000000000e+01
   6.1000000000000000e+01
   7.1000000000000000e+01
   3.9000000000000000e+01
   1.3000000000000000e+02
   0.0000000000000000e+00
   5.4000000000000000e+01
   2.0000000000000000e+01
   1.1000000000000000e+01
   2.4000000000000000e+01
   2.1000000000000000e+01
   0.0000000000000000e+00
   4.8000000000000000e+01
   0.0000000000000000e+00
   1.6300000000000000e+02
   1.0000000000000000e+01
   6.5000000000000000e+01
   1.2000000000000000e+01
   3.0000000000000000e+01
   4.2000000000000000e+01
   3.8000000000000000e+01
   1.5000000000000000e+01
   3.4000000000000000e+01
   4.2000000000000000e+01
   3.7000000000000000e+01
   2.2000000000000000e+01
   5.0000000000000000e+00
   2.3000000000000000e+01
   3.8000000000000000e+01
   3.1000000000000000e+01
   4.3000000000000000e+01
   5.0000000000000000e+01
   2.0000000000000000e+00
   8.0000000000000000e+00
   3.9000000000000000e+01
   0.0000000000000000e+00
   6.8000000000000000e+01
   6.0000000000000000e+00
   8.0000000000000000e+00
   2.2000000000000000e+01
   1.8400000000000000e+02
   2.0000000000000000e+01
   3.3000000000000000e+01
